
    -----------------------------------------------------------------------
          Psi4: An Open-Source Ab Initio Electronic Structure Package
                               Psi4 1.4a2.dev35 

                         Git: Rev {master} 03b714c dirty


    R. M. Parrish, L. A. Burns, D. G. A. Smith, A. C. Simmonett,
    A. E. DePrince III, E. G. Hohenstein, U. Bozkaya, A. Yu. Sokolov,
    R. Di Remigio, R. M. Richard, J. F. Gonthier, A. M. James,
    H. R. McAlexander, A. Kumar, M. Saitow, X. Wang, B. P. Pritchard,
    P. Verma, H. F. Schaefer III, K. Patkowski, R. A. King, E. F. Valeev,
    F. A. Evangelista, J. M. Turney, T. D. Crawford, and C. D. Sherrill,
    J. Chem. Theory Comput. 13(7) pp 3185--3197 (2017).
    (doi: 10.1021/acs.jctc.7b00174)


                         Additional Contributions by
    P. Kraus, H. Kruse, M. H. Lechner, M. C. Schieber, R. A. Shaw,
    A. Alenaizan, R. Galvelis, Z. L. Glick, S. Lehtola, and J. P. Misiewicz

    -----------------------------------------------------------------------


    Psi4 started on: Monday, 27 January 2020 08:49AM

    Process ID: 32127
    Host:       rich133-k41-16-l.pace.gatech.edu
    PSIDATADIR: /nv/hp22/jmcdaniel43/data/Programs/psi4/psi4/bin/share/psi4
    Memory:     500.0 MiB
    Threads:    1
    
  ==> Input File <==

--------------------------------------------------------------------------
molecule h2o {
O	30.275	30.306	30.18
H	29.677	30.07	30.945
H	30.855	29.523	29.956
symmetry c1
no_reorient
no_com
}

set {
basis aug-cc-pvdz
dft_spherical_points 2702
dft_radial_points 89
scf_type df
}

energy('PBE')

--------------------------------------------------------------------------

*** tstart() called on rich133-k41-16-l.pace.gatech.edu
*** at Mon Jan 27 08:49:29 2020

   => Loading Basis Set <=

    Name: AUG-CC-PVDZ
    Role: ORBITAL
    Keyword: BASIS
    atoms 1   entry O          line   254 file /nv/hp22/jmcdaniel43/data/Programs/psi4/psi4/bin/share/psi4/basis/aug-cc-pvdz.gbs 
    atoms 2-3 entry H          line    40 file /nv/hp22/jmcdaniel43/data/Programs/psi4/psi4/bin/share/psi4/basis/aug-cc-pvdz.gbs 


         ---------------------------------------------------------
                                   SCF
               by Justin Turney, Rob Parrish, Andy Simmonett
                          and Daniel G. A. Smith
                              RKS Reference
                        1 Threads,    500 MiB Core
         ---------------------------------------------------------

  ==> Geometry <==

    Molecular point group: c1
    Full point group: C1

    Geometry (in Angstrom), charge = 0, multiplicity = 1:

       Center              X                  Y                   Z               Mass       
    ------------   -----------------  -----------------  -----------------  -----------------
         O           30.275000000000    30.306000000000    30.180000000000    15.994914619570
         H           29.677000000000    30.070000000000    30.945000000000     1.007825032230
         H           30.855000000000    29.523000000000    29.956000000000     1.007825032230

  Running in c1 symmetry.

  Rotational constants: A =      8.96367  B =      0.00034  C =      0.00034 [cm^-1]
  Rotational constants: A = 268724.01754  B =     10.22522  C =     10.22506 [MHz]
  Nuclear repulsion =    8.794824250261485

  Charge       = 0
  Multiplicity = 1
  Electrons    = 10
  Nalpha       = 5
  Nbeta        = 5

  ==> Algorithm <==

  SCF Algorithm Type is DF.
  DIIS enabled.
  MOM disabled.
  Fractional occupation disabled.
  Guess Type is SAD.
  Energy threshold   = 1.00e-06
  Density threshold  = 1.00e-06
  Integral threshold = 0.00e+00

  ==> Primary Basis <==

  Basis Set: AUG-CC-PVDZ
    Blend: AUG-CC-PVDZ
    Number of shells: 19
    Number of basis function: 41
    Number of Cartesian functions: 43
    Spherical Harmonics?: true
    Max angular momentum: 2

  ==> DFT Potential <==

   => Composite Functional: PBE <= 

    PBE GGA Exchange-Correlation Functional

    J.P. Perdew et. al., Phys. Rev. Lett., 77(18), 3865-3868, 1996


    Deriv               =              1
    GGA                 =           TRUE
    Meta                =          FALSE

    Exchange Hybrid     =          FALSE
    MP2 Hybrid          =          FALSE

   => Exchange Functionals <=

    1.0000     XC_GGA_X_PBE

   => Correlation Functionals <=

    1.0000     XC_GGA_C_PBE

   => Molecular Quadrature <=

    Radial Scheme          =       TREUTLER
    Pruning Scheme         =           NONE
    Nuclear Scheme         =       TREUTLER

    BS radius alpha        =              1
    Pruning alpha          =              1
    Radial Points          =             89
    Spherical Points       =           2702
    Total Points           =         703393
    Total Blocks           =           4768
    Max Points             =            256
    Max Functions          =             41
    Weights Tolerance      =       1.00E-15

   => Loading Basis Set <=

    Name: (AUG-CC-PVDZ AUX)
    Role: JKFIT
    Keyword: DF_BASIS_SCF
    atoms 1   entry O          line   270 file /nv/hp22/jmcdaniel43/data/Programs/psi4/psi4/bin/share/psi4/basis/aug-cc-pvdz-jkfit.gbs 
    atoms 2-3 entry H          line    70 file /nv/hp22/jmcdaniel43/data/Programs/psi4/psi4/bin/share/psi4/basis/aug-cc-pvdz-jkfit.gbs 

  ==> Pre-Iterations <==

   -------------------------------------------------------
    Irrep   Nso     Nmo     Nalpha   Nbeta   Ndocc  Nsocc
   -------------------------------------------------------
     A         41      41       0       0       0       0
   -------------------------------------------------------
    Total      41      41       5       5       5       0
   -------------------------------------------------------

  ==> Integral Setup <==

  DFHelper Memory: AOs need 0.002 GiB; user supplied 0.002 GiB. Using in-core AOs.

  ==> MemDFJK: Density-Fitted J/K Matrices <==

    J tasked:                   Yes
    K tasked:                    No
    wK tasked:                   No
    OpenMP threads:               1
    Memory [MiB]:                 2
    Algorithm:                 Core
    Schwarz Cutoff:           1E-12
    Mask sparsity (%):       0.0000
    Fitting Condition:        1E-10

   => Auxiliary Basis Set <=

  Basis Set: (AUG-CC-PVDZ AUX)
    Blend: AUG-CC-PVDZ-JKFIT
    Number of shells: 52
    Number of basis function: 150
    Number of Cartesian functions: 171
    Spherical Harmonics?: true
    Max angular momentum: 3

  Cached 50.0% of DFT collocation blocks in 0.418 [GiB].

  Minimum eigenvalue in the overlap matrix is 3.1974438574E-03.
  Using Symmetric Orthogonalization.

  SCF Guess: Superposition of Atomic Densities via on-the-fly atomic UHF.

  ==> Iterations <==

                           Total Energy        Delta E     RMS |[F,P]|

   @DF-RKS iter SAD:   -76.00611763381309   -7.60061e+01   0.00000e+00 
   @DF-RKS iter   1:   -76.14288001540511   -1.36762e-01   1.82108e-02 DIIS
   @DF-RKS iter   2:   -74.97607015853021    1.16681e+00   4.20519e-02 DIIS
   @DF-RKS iter   3:   -76.35381919255160   -1.37775e+00   1.92206e-03 DIIS
   @DF-RKS iter   4:   -76.35720060839856   -3.38142e-03   2.62920e-04 DIIS
   @DF-RKS iter   5:   -76.35724878787192   -4.81795e-05   5.73584e-05 DIIS
   @DF-RKS iter   6:   -76.35725092836009   -2.14049e-06   4.20424e-06 DIIS
   @DF-RKS iter   7:   -76.35725093916255   -1.08025e-08   8.85152e-07 DIIS
  Energy and wave function converged.


  ==> Post-Iterations <==

    Orbital Energies [Eh]
    ---------------------

    Doubly Occupied:                                                      

       1A    -18.782864     2A     -0.915677     3A     -0.480513  
       4A     -0.332067     5A     -0.261632  

    Virtual:                                                              

       6A     -0.038966     7A      0.015269     8A      0.088551  
       9A      0.108310    10A      0.112321    11A      0.124235  
      12A      0.166639    13A      0.197949    14A      0.254102  
      15A      0.277369    16A      0.304556    17A      0.411394  
      18A      0.464907    19A      0.482897    20A      0.600303  
      21A      0.680203    22A      0.863170    23A      0.870880  
      24A      0.908297    25A      1.032113    26A      1.128411  
      27A      1.166336    28A      1.240319    29A      1.646449  
      30A      1.694416    31A      1.748930    32A      1.985544  
      33A      2.074920    34A      2.128383    35A      2.340826  
      36A      2.537939    37A      3.187196    38A      3.195590  
      39A      3.212536    40A      3.512103    41A      3.694360  

    Final Occupation by Irrep:
              A 
    DOCC [     5 ]

  @DF-RKS Final Energy:   -76.35725093916255

   => Energetics <=

    Nuclear Repulsion Energy =              8.7948242502614846
    One-Electron Energy =                -122.1968250951971697
    Two-Electron Energy =                  46.2371652324169204
    DFT Exchange-Correlation Energy =      -9.1924153266437809
    Empirical Dispersion Energy =           0.0000000000000000
    VV10 Nonlocal Energy =                  0.0000000000000000
    Total Energy =                        -76.3572509391625545

Computation Completed


Properties will be evaluated at   0.000000,   0.000000,   0.000000 [a0]

Properties computed using the SCF density matrix

  Nuclear Dipole Moment: [e a0]
     X:   572.0806      Y:   570.7748      Z:   571.3417

  Electronic Dipole Moment: [e a0]
     X:  -572.0913      Y:  -571.3783      Z:  -571.0212

  Dipole Moment: [e a0]
     X:    -0.0107      Y:    -0.6035      Z:     0.3205     Total:     0.6834

  Dipole Moment: [D]
     X:    -0.0273      Y:    -1.5340      Z:     0.8146     Total:     1.7371


*** tstop() called on rich133-k41-16-l.pace.gatech.edu at Mon Jan 27 08:49:43 2020
Module time:
	user time   =      12.71 seconds =       0.21 minutes
	system time =       0.66 seconds =       0.01 minutes
	total time  =         14 seconds =       0.23 minutes
Total time:
	user time   =      12.71 seconds =       0.21 minutes
	system time =       0.66 seconds =       0.01 minutes
	total time  =         14 seconds =       0.23 minutes

    Psi4 stopped on: Monday, 27 January 2020 08:49AM
    Psi4 wall time for execution: 0:00:13.70

*** Psi4 exiting successfully. Buy a developer a beer!
