Generated by Psi4
        SP                           DFT                      DEF2-SVP
Number of atoms                            I                6
Charge                                     I                0
Multiplicity                               I                1
Number of electrons                        I               22
Number of alpha electrons                  I               11
Number of beta electrons                   I               11
Number of basis functions                  I               57
Number of independent functions            I               57
Atomic numbers                             I   N=           6
           6           6           7           1           1           1
Nuclear charges                            R   N=           6
  6.00000000e+00  6.00000000e+00  7.00000000e+00  1.00000000e+00  1.00000000e+00
  1.00000000e+00
Current cartesian coordinates              R   N=          18
 -9.47914419e-02 -4.03429037e-02 -2.42166745e+00  1.12788859e-02  3.25307815e-03
  3.13673336e-01  9.77905483e-02  4.25404844e-02  2.48183172e+00  3.50484727e-01
 -1.92621400e+00 -3.11867403e+00  1.26662396e+00  1.29599583e+00 -3.20161411e+00
 -1.98147512e+00  4.80767975e-01 -3.06362631e+00
Integer atomic weights                     I   N=           6
          12          12          14           1           1           1
Real atomic weights                        R   N=           6
  1.20000000e+01  1.20000000e+01  1.40030740e+01  1.00782503e+00  1.00782503e+00
  1.00782503e+00
Number of primitive shells                 I               51
Number of contracted shells                I               27
Pure/Cartesian d shells                    I                0
Pure/Cartesian f shells                    I                0
Highest angular momentum                   I                2
Largest degree of contraction              I                5
Shell types                                I   N=          27
           0           0           0           1           1          -2
           0           0           0           1           1          -2
           0           0           0           1           1          -2
           0           0           1           0           0           1
           0           0           1
Number of primitives per shell             I   N=          27
           5           1           1           3           1           1
           5           1           1           3           1           1
           5           1           1           3           1           1
           3           1           1           3           1           1
           3           1           1
Shell to atom map                          I   N=          27
           1           1           1           1           1           1
           2           2           2           2           2           2
           3           3           3           3           3           3
           4           4           4           5           5           5
           6           6           6
Primitive exponents                        R   N=          51
  1.23840169e+03  1.86290050e+02  4.22511763e+01  1.16765579e+01  3.59305065e+00
  4.02451474e-01  1.30901827e-01  9.46809706e+00  2.01035451e+00  5.47710047e-01
  1.52686138e-01  8.00000000e-01  1.23840169e+03  1.86290050e+02  4.22511763e+01
  1.16765579e+01  3.59305065e+00  4.02451474e-01  1.30901827e-01  9.46809706e+00
  2.01035451e+00  5.47710047e-01  1.52686138e-01  8.00000000e-01  1.71284159e+03
  2.57648127e+02  5.84582459e+01  1.61983679e+01  5.00526008e+00  5.87318566e-01
  1.87645923e-01  1.35714702e+01  2.92573729e+00  7.99277508e-01  2.19543480e-01
  1.00000000e+00  1.30107010e+01  1.96225720e+00  4.44537960e-01  1.21949620e-01
  8.00000000e-01  1.30107010e+01  1.96225720e+00  4.44537960e-01  1.21949620e-01
  8.00000000e-01  1.30107010e+01  1.96225720e+00  4.44537960e-01  1.21949620e-01
  8.00000000e-01
Contraction coefficients                   R   N=          51
  5.51736505e-03  4.10888286e-02  1.82253821e-01  4.68284594e-01  4.45758173e-01
  1.00000000e+00  1.00000000e+00  5.68883320e-02  3.12940593e-01  7.60650165e-01
  1.00000000e+00  1.00000000e+00  5.51736505e-03  4.10888286e-02  1.82253821e-01
  4.68284594e-01  4.45758173e-01  1.00000000e+00  1.00000000e+00  5.68883320e-02
  3.12940593e-01  7.60650165e-01  1.00000000e+00  1.00000000e+00 -5.44779958e-03
 -4.06271746e-02 -1.81119623e-01 -4.68439756e-01 -4.46168463e-01  1.00000000e+00
  1.00000000e+00 -5.88481170e-02 -3.20246248e-01 -7.53282265e-01  1.00000000e+00
  1.00000000e+00  3.34854848e-02  2.34721871e-01  8.13770285e-01  1.00000000e+00
  1.00000000e+00  3.34854848e-02  2.34721871e-01  8.13770285e-01  1.00000000e+00
  1.00000000e+00  3.34854848e-02  2.34721871e-01  8.13770285e-01  1.00000000e+00
  1.00000000e+00
Coordinates of each shell                  R   N=          81
 -9.47914419e-02 -4.03429037e-02 -2.42166745e+00 -9.47914419e-02 -4.03429037e-02
 -2.42166745e+00 -9.47914419e-02 -4.03429037e-02 -2.42166745e+00 -9.47914419e-02
 -4.03429037e-02 -2.42166745e+00 -9.47914419e-02 -4.03429037e-02 -2.42166745e+00
 -9.47914419e-02 -4.03429037e-02 -2.42166745e+00  1.12788859e-02  3.25307815e-03
  3.13673336e-01  1.12788859e-02  3.25307815e-03  3.13673336e-01  1.12788859e-02
  3.25307815e-03  3.13673336e-01  1.12788859e-02  3.25307815e-03  3.13673336e-01
  1.12788859e-02  3.25307815e-03  3.13673336e-01  1.12788859e-02  3.25307815e-03
  3.13673336e-01  9.77905483e-02  4.25404844e-02  2.48183172e+00  9.77905483e-02
  4.25404844e-02  2.48183172e+00  9.77905483e-02  4.25404844e-02  2.48183172e+00
  9.77905483e-02  4.25404844e-02  2.48183172e+00  9.77905483e-02  4.25404844e-02
  2.48183172e+00  9.77905483e-02  4.25404844e-02  2.48183172e+00  3.50484727e-01
 -1.92621400e+00 -3.11867403e+00  3.50484727e-01 -1.92621400e+00 -3.11867403e+00
  3.50484727e-01 -1.92621400e+00 -3.11867403e+00  1.26662396e+00  1.29599583e+00
 -3.20161411e+00  1.26662396e+00  1.29599583e+00 -3.20161411e+00  1.26662396e+00
  1.29599583e+00 -3.20161411e+00 -1.98147512e+00  4.80767975e-01 -3.06362631e+00
 -1.98147512e+00  4.80767975e-01 -3.06362631e+00 -1.98147512e+00  4.80767975e-01
 -3.06362631e+00
Total Energy                               R     -1.324917048949288e+02
orbital energies                           R   N=          57
 -1.43855069e+01 -1.02859011e+01 -1.02738213e+01 -9.24795871e-01 -7.95568096e-01
 -5.30049188e-01 -4.80534520e-01 -4.80321702e-01 -3.71396344e-01 -3.45393369e-01
 -3.45334994e-01  4.41081528e-02  4.41580434e-02  5.97451393e-02  1.39698234e-01
  1.39760178e-01  1.88657286e-01  2.32940015e-01  4.67306044e-01  4.67662129e-01
  5.47087954e-01  5.52299546e-01  5.52557766e-01  6.39187853e-01  6.50915443e-01
  6.51206473e-01  6.83980724e-01  7.18678911e-01  8.73987765e-01  8.74041877e-01
  9.17308590e-01  1.08735620e+00  1.12716186e+00  1.18004745e+00  1.18029948e+00
  1.49904404e+00  1.57710533e+00  1.57716138e+00  1.62412899e+00  1.62422914e+00
  1.78099347e+00  1.78118743e+00  1.87284471e+00  2.05822162e+00  2.05914931e+00
  2.18675295e+00  2.27962516e+00  2.27986945e+00  2.41579754e+00  2.41610207e+00
  2.63802497e+00  2.84707012e+00  2.84716756e+00  2.98548959e+00  3.11034171e+00
  3.11093648e+00  3.50712649e+00
MO coefficients (C)                        R   N=        3249
 -1.62580993e-04  1.63292350e-03  2.08168763e-02  4.23640497e-05  1.68329693e-05
  1.08950010e-03  2.14211829e-04  7.14894966e-05  5.82296915e-03  3.36115104e-04
  2.12474486e-05  6.78102243e-06  7.72956159e-08 -6.06348725e-08  2.57119774e-04
  2.08112509e-03  1.72647559e-02 -1.46003248e-04 -6.67590842e-05 -3.65506978e-03
  1.29853977e-03  5.78598081e-04  3.27515404e-02 -2.51964079e-03 -1.73047989e-04
 -7.67205545e-05 -2.72914779e-06 -3.11483734e-06 -9.88893455e-01  4.46015282e-02
 -5.60873162e-02  2.00749313e-04  9.21324369e-05  5.01232635e-03  5.95081982e-04
  2.74052850e-04  1.48412739e-02  1.32961621e-03  9.19807920e-05  4.18279079e-05
  1.46152843e-06  1.68060654e-06 -1.78628455e-04 -2.02130512e-03  3.61121491e-05
 -1.13964752e-04  1.37446238e-04 -1.70980426e-04 -2.01256890e-03  9.08096593e-05
  8.59931303e-05  1.30255965e-04 -1.75189945e-04 -2.02015344e-03 -1.09402352e-04
  3.71520278e-05  1.40784402e-04  9.88069954e-01  5.03311961e-02 -3.82438625e-02
 -1.03714196e-06  3.76306656e-07 -3.72883825e-05 -2.71279197e-05 -2.06096326e-05
 -5.21411191e-04 -3.05548538e-04 -2.07065095e-05 -3.80337400e-06 -9.34257395e-07
 -4.65525589e-06  1.12994408e-02 -3.33837633e-04  1.34589412e-02  7.06167331e-05
  2.88910976e-05  1.82685704e-03  2.02265207e-04  9.25553558e-05  4.98873242e-03
 -2.11463462e-03 -1.42297299e-04 -5.77884183e-05 -2.30877790e-06 -2.01376636e-06
  1.96799684e-04  2.29238034e-03 -1.12523287e-02  2.82339428e-05  1.43512508e-05
  6.87439843e-04  1.38111544e-04  6.46160032e-05  3.45421774e-03  2.48220920e-04
  1.79262438e-05  9.35886862e-06  2.51146302e-07  3.46400215e-07 -2.97406855e-03
  7.50026578e-03  5.37522315e-04 -2.23966449e-03 -6.25300340e-04 -2.95677924e-03
  7.49003644e-03  1.62504625e-03  1.59156144e-03 -7.25112261e-04 -2.96759713e-03
  7.49588806e-03 -2.23476818e-03  6.23354890e-04 -5.61214011e-04  1.05211382e-02
  3.26748139e-03 -5.62622425e-02  8.16200190e-05  3.21660972e-05  2.13032645e-03
 -7.52992135e-04 -2.80611705e-04 -1.98071664e-02  2.15127219e-03  1.44861924e-04
  6.09673270e-05  3.13219813e-06  3.25051361e-06 -9.88010826e-01 -5.35120886e-02
  1.70601681e-02 -4.02350784e-05 -2.33157728e-05 -9.30251458e-04 -2.45241904e-03
 -1.06529353e-03 -6.23249037e-02 -4.59926439e-03 -3.16045094e-04 -1.39819240e-04
 -4.99644271e-06 -5.37912725e-06 -7.99081468e-04 -1.28650433e-03  5.90217603e-02
  8.45812319e-05  3.66763802e-05  2.15187662e-03 -8.70659161e-04 -4.13508972e-04
 -2.14971923e-02  1.01017858e-03  7.18343905e-05  3.54914612e-05  1.10915902e-06
  1.44078183e-06  8.24244185e-04  2.66462911e-03 -4.70345013e-06 -7.61620377e-05
 -5.06151349e-04  8.12200291e-04  2.64299799e-03  2.97901305e-05  3.82888453e-05
 -5.11231575e-04  8.18575107e-04  2.65508978e-03 -8.64859665e-05  7.49050013e-06
 -5.07935842e-04  5.06954443e-02 -9.73027150e-02 -2.58209401e-02 -1.46610455e-03
 -6.37525475e-04 -3.73729464e-02 -3.45360922e-04 -1.34762240e-04 -9.14856397e-03
 -5.36209148e-03 -3.63262469e-04 -1.54448015e-04 -6.66502960e-06 -6.19735538e-06
  2.02568494e-01 -3.86997062e-01 -9.42232885e-02 -7.35600330e-03 -3.40610148e-03
 -1.83438524e-01 -1.09605936e-03 -5.20187392e-04 -2.71724861e-02 -2.38792236e-02
 -1.64557062e-03 -7.37474617e-04 -2.63745886e-05 -2.89518041e-05 -2.27592920e-01
 -4.44521409e-01 -1.34554414e-01 -7.90221239e-03 -3.57353723e-03 -1.98252157e-01
  5.87032924e-04  2.64595528e-04  1.47337815e-02 -1.92059633e-02 -1.32841211e-03
 -6.01940613e-04 -2.07849236e-05 -2.35917500e-05 -2.37661070e-02 -1.10438968e-03
  7.32157889e-04 -3.22472866e-03 -1.83019784e-03 -2.37979196e-02 -1.10844222e-03
  2.29341748e-03  2.26456185e-03 -1.97250011e-03 -2.37893049e-02 -1.10007506e-03
 -3.24062186e-03  8.75346480e-04 -1.73803326e-03  2.38238689e-01 -4.71811547e-01
  2.63330642e-03 -2.19613779e-03 -9.22871496e-04 -5.67718900e-02  1.26451923e-03
  4.82977682e-04  3.30293408e-02 -6.31381420e-03 -4.22623200e-04 -1.79362217e-04
 -7.75080119e-06 -3.39189611e-06  5.40489217e-02 -1.03613952e-01 -7.07463023e-02
  9.33876287e-03  3.97645160e-03  2.38087078e-01  6.27301988e-03  2.68963232e-03
  1.59993306e-01 -8.55082745e-03 -5.62864598e-04 -2.07454163e-04 -1.01224575e-05
 -7.63104649e-06  8.29849052e-02  1.71522493e-01 -2.78068914e-02  2.43495163e-03
  1.15850773e-03  6.02144745e-02  8.12694990e-04  3.96274579e-04  1.98013702e-02
  5.15833069e-03  3.62507415e-04  1.74314043e-04  5.60420726e-06  6.93548458e-06
 -1.51423391e-01 -2.80250419e-02  4.12067830e-03 -1.76607658e-02 -7.63754481e-03
 -1.51268090e-01 -2.79874633e-02  1.26667891e-02  1.24591205e-02 -8.39973677e-03
 -1.51388445e-01 -2.80088921e-02 -1.76827146e-02  4.85326340e-03 -7.12138893e-03
  5.44788963e-02 -1.05652823e-01 -2.60417843e-02  1.55211471e-02  7.20322492e-03
  4.03360171e-01  6.30261566e-03  2.85428137e-03  1.63798238e-01  2.19887173e-02
  1.47287544e-03  5.79376727e-04  5.16392274e-05  5.46724411e-05 -1.44926751e-01
  3.20262962e-01  1.07544548e-01 -1.06637831e-02 -4.30171947e-03 -2.71045166e-01
 -2.30559170e-03 -8.80368421e-04 -5.77472068e-02  2.43664314e-03  1.61482818e-04
  3.45309625e-05  6.26284002e-06  4.03963078e-06 -7.54213253e-02 -1.59276947e-01
 -1.01183781e-01  6.08627143e-04  5.99937024e-05  1.63740957e-02 -8.79547513e-04
 -3.25719249e-04 -2.26743986e-02  2.57679869e-03  1.73037508e-04  5.37064539e-05
  3.07531106e-06  2.06905746e-06 -1.62928904e-01 -4.63544751e-02  3.41192440e-03
 -1.26073452e-02  5.57932069e-03 -1.61358540e-01 -4.60036756e-02  9.54206702e-03
  9.16570960e-03  5.08058571e-03 -1.61696895e-01 -4.60688191e-02 -1.23061964e-02
  3.69186348e-03  5.99625199e-03 -5.18224273e-05  1.13797283e-04  1.69941530e-04
 -2.96705810e-01  3.06897645e-01  6.08614030e-03 -1.23213869e-01  1.27433999e-01
  2.50507702e-03 -4.68804264e-06 -1.40900693e-03  1.14660181e-03  1.26897937e-02
 -3.71290115e-04  3.14490130e-04 -6.80170890e-04 -2.20530705e-04 -1.32881546e-01
  1.37412657e-01  3.34831054e-03 -6.27962387e-02  6.49451028e-02  1.67508465e-03
 -2.79852354e-04  6.74146376e-03 -7.01797735e-03  2.05347430e-03 -2.25355919e-04
  1.41461181e-04  3.25228884e-04 -1.81854841e-05  7.34335383e-02 -7.59249935e-02
 -1.63599226e-03 -2.87198262e-02  2.96975844e-02  7.47641652e-04 -2.83316477e-04
  7.53649228e-03 -7.80157126e-03  4.06605143e-04 -1.73518210e-04 -2.81153908e-01
 -8.34391059e-02 -3.96743378e-03 -1.10926531e-02 -8.32735102e-03  6.30128834e-04
  1.77068836e-04 -8.67825606e-03  8.91316614e-03  2.00060748e-04  2.81462988e-01
  8.35343963e-02  1.14372555e-02  3.42768511e-03  8.12250962e-03  7.49395963e-06
 -4.57662857e-05 -5.13219521e-04 -3.06357275e-01 -2.96606145e-01  1.68819598e-02
 -1.27366529e-01 -1.23300297e-01  6.93251663e-03  1.18487141e-04 -7.64391219e-04
 -4.44367261e-04 -4.03966332e-04 -1.28167091e-02 -3.01750114e-04  6.08871414e-04
  2.18084325e-04 -1.37538172e-01 -1.33088350e-01  7.33091357e-03 -6.50134990e-02
 -6.29005797e-02  2.93630679e-03 -6.17771073e-04  7.04590250e-03  6.86306147e-03
  1.21874761e-04 -1.34840496e-03 -8.22515832e-05 -2.39005715e-04  5.53461408e-04
  7.60529593e-02  7.35984113e-02 -4.34787041e-03 -2.97981088e-02 -2.88290388e-02
  1.47715978e-03 -7.76647516e-04  7.78670593e-03  7.54437486e-03  1.75737610e-04
  4.78159003e-04  1.61784365e-01  4.80896025e-02 -1.16245675e-02  2.87953849e-03
  5.38898109e-03 -3.24917301e-01 -9.65258940e-02  7.70452911e-03  7.71322056e-03
 -1.03712174e-02  1.62287933e-01  4.82525568e-02  2.64863932e-03 -1.18243866e-02
  5.07409102e-03  1.44748939e-02 -3.94787092e-02 -1.06396874e-01 -4.30698631e-03
 -1.53102825e-03 -1.14204699e-01 -3.08223063e-03 -1.04917503e-03 -8.25230608e-02
 -1.67556652e-03 -1.23131894e-04 -5.19472012e-05  5.22923076e-07  6.56216302e-06
 -8.25251891e-02  1.78396459e-01  6.82103639e-02  9.71664169e-03  4.04583058e-03
  2.54874521e-01 -2.09247302e-03 -1.07193179e-03 -4.75575075e-02 -6.56618184e-03
 -4.75922303e-04 -2.32113836e-04 -7.36701885e-06 -8.74717072e-06 -1.49619683e-01
 -3.14477933e-01 -3.68852119e-01  2.01208200e-02  9.46009931e-03  4.94001901e-01
 -1.09623360e-02 -5.18515403e-03 -2.68582477e-01  2.87190961e-02  2.01717864e-03
  9.39867106e-04  3.22625142e-05  3.84085404e-05  2.43609437e-02  1.90730445e-02
 -5.06573701e-04  1.59301018e-03 -2.56408872e-03  2.46602471e-02  1.91433152e-02
 -1.31007967e-03 -1.21268849e-03 -2.48876004e-03  2.44121537e-02  1.90809900e-02
  1.51783295e-03 -4.96939059e-04 -2.61411552e-03 -1.65259334e-05  2.75349108e-05
  6.03158636e-04 -8.83047087e-02  1.25274613e-01  1.40971065e-03 -5.51869602e-02
  7.82904330e-02  1.03059013e-03 -2.89118592e-04  9.44124750e-03 -1.37719242e-02
  8.29472344e-03  5.79579229e-04  1.23620980e-05  6.65240264e-06 -1.12269466e-04
  2.19578841e-01 -3.11403082e-01 -3.31564196e-03  1.34355237e-01 -1.90503754e-01
 -1.60088982e-03 -4.66458874e-04  1.88060810e-02 -2.67364385e-02  2.25185180e-03
 -5.97551551e-04  5.68900547e-05  1.27503973e-04 -5.66463143e-05 -2.54924315e-01
  3.61484426e-01  3.33249031e-03  1.48549544e-01 -2.10641848e-01 -1.89503159e-03
  4.03611716e-04 -1.70915587e-02  2.42532358e-02 -1.11692829e-03  6.58596715e-04
 -1.52730508e-01 -7.31883377e-02 -8.79119907e-04 -3.85425505e-03 -6.89290039e-04
  2.54465525e-02  1.21548351e-02 -3.78951893e-03  3.06962572e-03  2.23006094e-04
  1.27479187e-01  6.10071428e-02  3.70286082e-03  2.15674431e-03  4.56953479e-04
 -1.36236132e-05  2.49041752e-05  1.08244341e-03  1.25382960e-01  8.84954890e-02
 -6.13699087e-03  7.84935996e-02  5.53899291e-02 -3.54878569e-03  1.18213335e-03
 -1.38688386e-02 -1.00536805e-02 -1.34388313e-03  7.12213815e-03 -4.24776992e-06
  7.67466304e-05 -9.77107750e-05 -3.10922913e-01 -2.19390443e-01  1.56912154e-02
 -1.90236096e-01 -1.34238954e-01  1.05315435e-02  2.43419966e-03 -2.66826623e-02
 -1.88751347e-02 -8.50490772e-04 -2.20763394e-04  1.68168689e-04  3.60775569e-04
  1.21495258e-04  3.61036659e-01  2.54763605e-01 -1.98995365e-02 -2.10393514e-01
 -1.48464289e-01  1.16551891e-02 -2.25970329e-03  2.41617544e-02  1.70626322e-02
  6.56173417e-04  1.12607049e-03 -5.89935199e-02 -2.83249195e-02  4.77008391e-03
 -2.03452396e-04 -4.87234002e-04  1.62024987e-01  7.74940337e-02 -2.13270083e-03
 -3.14860091e-03  9.36118797e-04 -1.02927370e-01 -4.93450381e-02 -1.26027125e-03
  4.32703485e-03 -5.37040683e-04  1.89239677e-03 -3.55306763e-03 -3.08224126e-02
 -4.23980264e-02 -8.29600999e-02  2.39813635e-03 -1.98446154e-01 -3.89633463e-01
  1.36058352e-02  2.38796944e-03 -2.03440483e-02 -3.96979707e-02  5.66570193e-03
  1.36364061e-02 -3.35557940e-04 -9.12931647e-05  1.42685288e-02 -1.91734758e-01
 -3.76940813e-01  1.35008190e-02 -2.29889533e-01 -4.51827135e-01  1.53912841e-02
 -2.71522082e-03  1.86772753e-02  3.69637903e-02  1.64701432e-03  5.92932616e-03
 -4.77887521e-04 -1.04959088e-03 -3.94771894e-03 -1.85339223e-01 -3.64506678e-01
  1.29195158e-02  2.33576379e-01  4.59207389e-01 -1.55838915e-02 -5.55309610e-04
  3.62868455e-03  7.17079589e-03  1.76521735e-04  7.86259866e-04 -1.65736239e-01
 -5.66297285e-01  3.89496226e-04  1.03131592e-03  1.00148892e-02  2.09105084e-01
  7.39031720e-01  2.98609880e-04  7.12546813e-04 -1.27606869e-02 -4.20461251e-02
 -1.36045214e-01  3.31294917e-04  2.83404117e-04  2.51242051e-03 -6.53836369e-05
  8.55106295e-05  1.54386389e-03  8.28100631e-02 -4.20597686e-02 -2.52974236e-03
  3.89345617e-01 -1.98361829e-01 -1.18646751e-02 -2.09348563e-03  3.86461744e-02
 -1.95644303e-02  1.72559168e-02 -6.00567293e-03  5.91858671e-05 -9.86980102e-05
 -6.97634692e-04  3.76979529e-01 -1.92291323e-01 -1.14258671e-02  4.51996246e-01
 -2.30499896e-01 -1.33164887e-02  1.98476599e-03 -3.72120567e-02  1.90898240e-02
  2.30924626e-03 -1.46216710e-03  2.01246366e-05  6.27857226e-05 -2.04170801e-04
  3.64473345e-01 -1.85989066e-01 -1.11060824e-02 -4.59216192e-01  2.34274588e-01
  1.40852548e-02  3.82570517e-04 -7.20185061e-03  3.68800559e-03  7.56187267e-05
 -1.48701590e-04 -1.44871704e-01 -5.04493648e-01 -9.48796375e-05  8.53799308e-04
  8.81446016e-03 -7.14384980e-02 -2.49346565e-01 -3.20575379e-04  1.95352551e-05
  4.36371755e-03  2.16298034e-01  7.52824281e-01 -1.62513249e-03  1.74238829e-04
 -1.31228487e-02  1.51170741e-01 -2.61527704e-01 -2.57765970e+00  3.01563222e-03
  1.81925038e-03  6.38924860e-02  1.37966943e-02  8.56641615e-03  2.95318699e-01
 -3.73664810e-03  1.01099172e-05  3.68345537e-04 -6.63574881e-05 -1.82322175e-04
 -8.04906934e-03 -2.27554650e-02  9.18736896e-01  1.01603026e-03  3.72404585e-03
 -3.26274011e-02  1.00653773e-02  8.59277681e-03  1.77386395e-01 -1.93083454e-02
 -1.53669588e-03 -9.82488490e-04 -3.68980571e-05 -9.90189280e-05 -3.11422501e-02
 -5.30663206e-02 -5.28087158e-01 -2.66426679e-04  3.01089768e-03 -6.14613259e-02
  5.53904197e-03 -1.38825244e-03  2.09065140e-01 -6.31539159e-03 -4.86663780e-04
 -2.91785711e-04 -7.58294560e-06 -1.72381784e-05  3.64127605e-02  1.15746317e+00
  2.16477957e-03 -8.64938538e-03 -7.36706326e-04  3.21403952e-02  1.13996082e+00
  6.34192808e-03  6.16085422e-03 -8.19142183e-04  3.51624001e-02  1.15222796e+00
 -8.57725313e-03  2.45267440e-03 -3.87392758e-04 -1.73426272e-04  5.61457755e-04
  3.28783279e-03 -3.66260200e-01 -1.17663475e-01  1.75933079e-02 -1.15794697e+00
 -3.71286024e-01  5.55978250e-02 -9.81987247e-04  1.15219012e-02  3.33877452e-03
 -3.25844000e-03  8.36015201e-03  4.14274884e-04 -5.74352882e-04 -7.96707421e-03
  1.89761706e-01  6.11964761e-02 -7.87144755e-03  5.08000197e-01  1.63323251e-01
 -1.93079727e-02  4.62121393e-04 -3.35511255e-03 -1.44697740e-03 -3.61724345e-03
  7.54545980e-03  2.73542455e-04  7.83962850e-04 -3.17112429e-04  1.89730127e-01
  6.11341463e-02 -7.98468782e-03 -3.10329625e-01 -9.98693470e-02  1.37045621e-02
  4.36034137e-04 -5.38563091e-03 -1.79247282e-03 -7.08749369e-04  9.79903876e-04
 -5.54613083e-04 -1.11981436e-01 -1.11946964e-02 -2.19686923e-03  1.26902382e-04
  1.03010227e-02  1.58634064e+00  3.10233996e-03  9.88620469e-03  5.25461850e-03
 -8.99828819e-03 -1.47031043e+00  5.91964071e-03 -8.41921677e-03 -5.11395609e-03
 -2.33541429e-04  6.36125077e-04  6.19596096e-03  1.17767681e-01 -3.66514879e-01
  2.79293753e-03  3.73399078e-01 -1.15978752e+00  9.48649325e-03 -2.11169358e-04
 -4.06523200e-03  1.14990877e-02  7.65621794e-03  4.04264371e-03  5.32939498e-04
 -8.06664166e-04 -9.06574962e-03 -6.06267223e-02  1.89587653e-01  2.99182281e-05
 -1.62963955e-01  5.08469595e-01  3.18386873e-03  2.40308789e-04  7.23300400e-04
 -3.35842843e-03  7.78949133e-03  3.37541174e-03  2.88457215e-04  8.85466016e-04
 -1.62304192e-03 -6.06694087e-02  1.89526995e-01 -2.40561001e-04  9.95197666e-02
 -3.10362032e-01  1.47639285e-03  5.19044674e-05  1.66893381e-03 -5.38928799e-03
  1.31761159e-03  3.39139099e-04 -1.04219746e-02 -1.76635203e+00 -1.92412854e-03
  9.55745738e-03 -6.04667438e-03  5.25350334e-03  7.84794714e-01  1.03313190e-02
 -4.16034369e-03  2.44408897e-03  6.32032449e-03  9.84334092e-01 -7.74721149e-03
 -7.51597102e-03  3.86814657e-03  5.52177461e-02 -1.29682276e-01 -9.13445949e-01
 -1.69816092e-02 -7.99803852e-03 -4.21521808e-01 -6.61904637e-02 -3.11115887e-02
 -1.65164073e+00  3.84853834e-02  2.70641873e-03  1.27533547e-03  7.00433702e-06
  1.66825950e-05 -1.11624725e-01  1.96598817e-01  2.99432473e+00 -7.83779734e-03
 -2.16379927e-03 -2.23239584e-01 -1.91688250e-02 -3.99801465e-03 -5.60613245e-01
 -4.60216855e-02 -3.20420990e-03 -1.47794648e-03 -3.91505893e-05 -2.72430704e-05
 -9.20539110e-02 -2.34960922e-01 -6.56620701e-01 -6.23550190e-03 -1.77231720e-03
 -1.75228870e-01  1.26203620e-02  3.47218243e-03  3.56023340e-01 -1.01979227e-02
 -7.45793620e-04 -3.88999884e-04 -8.86222667e-06 -1.05341565e-05 -9.17428484e-02
 -4.01449583e-01 -2.97238315e-03  9.23743079e-03 -1.44957363e-02 -9.39229730e-02
 -3.85620730e-01 -7.45962130e-03 -6.91061711e-03 -1.37777950e-02 -9.27679172e-02
 -3.94519169e-01  8.75998467e-03 -2.90490804e-03 -1.46387298e-02  3.65250317e-03
  2.43531848e-01 -6.19153483e+00  6.12863767e-03  2.00336753e-03  1.58065082e-01
 -1.07554600e-01 -4.33853609e-02 -2.81163731e+00  3.24760836e-02  2.14227476e-03
  7.96396169e-04  6.00148867e-05  7.99135073e-05 -1.02890195e-01  2.23138291e-01
  2.03616090e-01 -8.57592662e-03 -3.80214217e-03 -2.18891494e-01 -2.24031922e-01
 -9.70094055e-02 -5.69329931e+00  1.73062302e-02  1.14530846e-03  4.59402054e-04
  2.80637706e-05  1.56053916e-05  5.06344851e-02 -7.57923811e-02  4.89131683e+00
 -8.48369462e-04 -2.92240928e-04 -2.20075218e-02 -5.69445473e-02 -2.72920090e-02
 -1.40290288e+00  3.14727009e-02  2.18155052e-03  1.00379205e-03  3.68951915e-05
  4.11677683e-05 -6.29457609e-02  6.25509186e-01 -1.65393752e-04 -1.24760348e-04
 -4.17557673e-03 -6.30345900e-02  6.27134765e-01 -1.34099948e-04 -5.49668867e-05
 -4.41092607e-03 -6.30457107e-02  6.28219906e-01 -2.31303192e-04 -8.29266395e-05
 -4.26628005e-03 -1.15242960e-04  1.48440270e-03 -4.84888230e-03 -1.20832810e-01
 -1.03006476e-01  5.86327872e-03  8.67685250e-01  7.40635467e-01 -4.05817921e-02
 -1.21418031e-03  1.35351393e-02  1.43392307e-02  3.50399624e-03 -9.93863434e-02
 -4.45820821e-04  2.06622658e-03 -7.65746030e-03 -4.41753231e-01 -3.78288589e-01
  2.37107414e-02  4.62589873e-02  4.05152838e-02 -2.98054887e-03  8.24890448e-04
 -9.74619842e-03 -7.93883590e-03  2.96843648e-04 -1.72443385e-02 -5.05823302e-05
 -5.19661666e-04  3.72954969e-03 -2.25297809e-02 -1.92587266e-02  7.78080319e-04
  1.16942291e-01  9.98692187e-02 -7.84016183e-03 -2.56036682e-03  2.73220172e-02
  2.34251108e-02  6.76936481e-04  1.00858947e-03  3.41367409e-01  1.99167509e-03
  7.68958724e-02  1.44196455e-02 -7.62643553e-03 -7.63255172e-01  1.64827224e-03
 -3.16507918e-03 -1.09824784e-02  1.00667517e-02  4.25023004e-01  1.97468845e-03
  1.41352331e-02  7.15686496e-02 -7.01300281e-03 -7.35962027e-05  5.77819045e-04
  2.30140288e-03  1.02809083e-01 -1.20084316e-01 -2.06613176e-03 -7.41172182e-01
  8.67171560e-01  1.99677299e-02  2.59602340e-04 -6.53693049e-03  1.08832041e-02
 -1.00382630e-01 -2.78710485e-03 -1.29873574e-04  8.96799997e-04 -5.67146657e-03
  3.79532475e-01 -4.45243525e-01 -7.37640096e-03 -4.21010262e-02  5.06738934e-02
  4.74704100e-03 -3.12023972e-04  9.32487535e-03 -1.04656718e-02 -1.62384802e-02
 -7.66156773e-04  5.21120134e-06 -3.79946396e-05 -1.02548427e-03  1.90044442e-02
 -2.22678824e-02 -4.47747723e-04 -9.97815189e-02  1.16711070e-01  1.88254435e-03
  7.66743512e-04 -2.34754649e-02  2.75761336e-02 -1.90984193e-03  6.55339294e-04
  6.84791002e-01  4.86490812e-03 -3.58050646e-02 -1.88066380e-02 -7.48544248e-03
 -4.72795598e-02  5.46449447e-04 -6.11981567e-02  6.23126371e-02  2.12348366e-03
 -6.36315440e-01 -2.85640735e-03  2.19061085e-02  4.43255425e-02  6.91884398e-03
  1.85575721e-01 -1.04656719e+00  1.18427096e+00 -2.24489808e-02 -6.28287060e-03
 -6.04003585e-01  2.92635789e-02 -5.83554542e-03  9.40205719e-01 -3.50925811e-03
 -4.23907078e-04 -3.95323942e-04  5.96098395e-04  1.09730687e-03 -1.86034620e-01
  6.98578290e-01 -2.49866078e+00 -3.66471793e-03 -1.27259324e-02  1.52805616e-02
 -3.72813450e-02  5.91395590e-03 -1.17100781e+00 -1.48839308e-01 -1.02129608e-02
 -4.65348583e-03 -3.56904005e-05  3.92301359e-05  2.64579873e-02  1.01207342e-01
  1.60152368e+00 -9.21549134e-03 -4.37709306e-04 -2.74810236e-01 -1.96011783e-02
 -1.16161848e-02 -4.61084017e-01  7.14020949e-02  5.10488180e-03  2.79270302e-03
  7.78992299e-05  1.19213520e-04  2.66906059e-01 -2.08107565e-01  5.64772380e-03
 -2.92302515e-02 -2.26895341e-02  2.82769769e-01 -2.10777645e-01  2.10853902e-02
  2.01409018e-02 -2.22820611e-02  2.73660297e-01 -2.09167527e-01 -2.98298819e-02
  6.61309162e-03 -2.10566556e-02  2.53852735e-03 -1.39456110e-02  1.39441501e-02
 -1.84025329e-01 -8.99460857e-02  2.73891128e-04  1.07694932e+00  5.26941789e-01
 -3.61055165e-02 -9.37516661e-04  1.14649327e-02  7.91535222e-03  1.64122997e-02
 -5.48518035e-02 -2.41418180e-03  8.67048793e-03 -3.73369629e-02  6.83596037e-01
  3.35555218e-01 -3.27466084e-02 -1.32451494e+00 -6.49587307e-01  4.46325272e-02
 -3.73284851e-03  1.87672146e-02  9.73469107e-03  4.31763596e-03 -1.20044775e-02
  4.69410482e-04  1.67931314e-03  2.60545732e-02 -1.96673478e-01 -9.64956225e-02
  5.59341335e-03  1.30433565e-01  6.38710875e-02 -1.41814548e-02  3.79515219e-03
 -3.24007417e-02 -1.58989975e-02 -8.74350514e-04 -1.64982525e-03  9.14738941e-02
  1.68277274e-03  5.70138519e-02  1.33450182e-02  1.02487485e-02 -3.95182146e-01
 -2.30544063e-02  9.05649813e-03 -1.54766128e-02 -5.99742607e-02  3.16342037e-01
  1.46575210e-02  1.03624362e-02  3.94914472e-02  4.51377851e-02  2.61254878e-03
 -1.50902375e-02  2.24064866e-02  9.03787852e-02 -1.84397655e-01 -8.61291685e-03
 -5.31774540e-01  1.08297209e+00  1.97857340e-02 -3.45120814e-06 -3.19893710e-03
  1.12261284e-02 -5.61402869e-02 -1.57930460e-02 -2.41707261e-03  9.13295419e-03
 -3.98287664e-02 -3.34471880e-01  6.82259158e-01  1.52102442e-03  6.49721029e-01
 -1.32550821e+00 -1.62226385e-02 -2.06020339e-03 -8.78832449e-03  1.86369303e-02
 -1.36875210e-02 -3.14351848e-03  4.95295196e-04  1.93275801e-03  2.21168691e-02
  9.65618195e-02 -1.97248149e-01 -4.16384661e-03 -6.47785352e-02  1.31111213e-01
 -6.59952166e-03  9.35707036e-04  1.59807316e-02 -3.23995559e-02  7.34824332e-04
 -1.13608079e-03  4.17254003e-01  2.16898258e-02 -9.07297083e-03 -5.14083075e-03
  6.11454032e-02 -1.26632558e-01 -1.00002916e-02 -4.06312565e-02  4.03441607e-02
 -1.86428277e-02 -2.79640002e-01 -2.03159466e-02  1.17785184e-02  4.17353556e-02
 -4.32638307e-02  2.27022400e-01 -1.47279749e+00  5.42791366e+00  2.07284283e-02
 -2.59576846e-03  6.58312453e-01 -1.03575975e-02  1.66031126e-02 -5.12873598e-01
 -5.50729674e-02 -4.24984888e-03 -2.78876189e-03  5.90774006e-04  1.00893193e-03
  7.03669217e-03  8.42228075e-02 -2.85915159e-01 -2.99476901e-03 -2.64633811e-03
 -6.29889877e-02  6.29379689e-02  2.66154698e-02  1.62034974e+00  3.46128106e-02
  2.64583300e-03  1.79625703e-03 -6.66736709e-05 -1.14356269e-04 -4.14145232e-02
 -1.85810340e-01 -9.99293122e-01  3.36758585e-03  1.77143590e-03  8.56303154e-02
  1.36046851e-02  6.89677171e-03  3.29488253e-01 -2.19614165e-02 -1.47140859e-03
 -5.67296397e-04 -4.96632451e-05 -6.51413826e-05  2.72050350e-01 -1.39607709e+00
  2.69179745e-02 -1.11379027e-01 -1.77127634e-02  2.83287471e-01 -1.43936999e+00
  8.40389889e-02  8.15752902e-02 -2.46898892e-02  2.77189328e-01 -1.41475049e+00
 -1.12343808e-01  3.09599553e-02 -1.52283768e-02  2.80267262e-03 -1.79021839e-02
  7.35055879e-02  7.72139557e-01  5.33829500e-01 -3.06857176e-02 -1.51589318e+00
 -1.04846584e+00  7.28141289e-02 -8.59616608e-03  9.35611037e-02  6.83062014e-02
  1.66543700e-02 -1.00232483e-01 -3.22483560e-04  4.44950491e-03 -8.02676524e-03
  5.74439225e-02  3.95710906e-02 -3.59482222e-03  1.09231084e-01  7.57936734e-02
  2.20963098e-02  4.63433860e-03 -4.91991857e-02 -3.45900298e-02 -3.52760220e-03